 Output coordinates in a.u. (scale by  1.000000000 to convert to a.u.)

  No.       Tag          Charge          X              Y              Z
 ---- ---------------- ---------- -------------- -------------- --------------
    1 C                    6.0000    -0.03614211    -0.42053916     0.01126238
    2 C                    6.0000     2.22682459     0.90517052     0.33137610
    3 C                    6.0000     2.22992887     3.53827291     0.35148544
    4 C                    6.0000    -0.02480912     4.85824384     0.02734558
    5 C                    6.0000    -2.28089903     3.54226215    -0.33191181
    6 C                    6.0000    -2.28936248     0.91463370    -0.32032235
    7 C                    6.0000    -0.14244891    -3.24634049     0.05524001
    8 O                    8.0000    -2.11732895    -4.34932595     0.68655829
    9 N                    7.0000     1.95702837    -4.49657036    -0.59018118
   10 H                    1.0000     3.99204501    -0.11393705     0.60632692
   11 H                    1.0000     3.99538978     4.54427784     0.62146220
   12 H                    1.0000    -0.03007003     6.90519702     0.03786346
   13 H                    1.0000    -4.04552126     4.55957129    -0.62368055
   14 H                    1.0000    -4.03594231    -0.13380540    -0.55478304
   15 H                    1.0000     1.87234178    -6.42341934    -0.69532107
   16 H                    1.0000     3.39263918    -3.61750506    -1.49991825

         Total DFT energy =     -400.633939181923

                       DFT Final Molecular Orbital Analysis
                       ------------------------------------

 Vector    1  Occ=2.000000D+00  E=-1.871146D+01

 Vector  341  Occ=0.000000D+00  E= 5.158241D+00

 Vector  342  Occ=0.000000D+00  E= 5.168708D+00

 Vector  343  Occ=0.000000D+00  E= 5.179273D+00

 Vector  344  Occ=0.000000D+00  E= 5.197208D+00

 Vector  345  Occ=0.000000D+00  E= 5.217432D+00

 Vector  346  Occ=0.000000D+00  E= 5.243866D+00

 Vector  347  Occ=0.000000D+00  E= 5.264756D+00

 Vector  348  Occ=0.000000D+00  E= 5.270260D+00

 Vector  349  Occ=0.000000D+00  E= 5.280735D+00

 Vector  350  Occ=0.000000D+00  E= 5.290845D+00

 Vector  351  Occ=0.000000D+00  E= 5.292882D+00

 Vector  352  Occ=0.000000D+00  E= 5.316963D+00

 Vector  353  Occ=0.000000D+00  E= 5.374384D+00

 Vector  354  Occ=0.000000D+00  E= 5.391000D+00

 Vector  355  Occ=0.000000D+00  E= 5.409303D+00

 Vector  356  Occ=0.000000D+00  E= 5.422455D+00

 Vector  357  Occ=0.000000D+00  E= 5.429752D+00

 Vector  358  Occ=0.000000D+00  E= 5.433177D+00

 Vector  359  Occ=0.000000D+00  E= 5.445467D+00

 Vector  360  Occ=0.000000D+00  E= 5.495609D+00

 Vector  361  Occ=0.000000D+00  E= 5.518942D+00

 Vector  362  Occ=0.000000D+00  E= 5.528234D+00

 Vector  363  Occ=0.000000D+00  E= 5.550709D+00

 Vector  364  Occ=0.000000D+00  E= 5.581382D+00

 Vector  365  Occ=0.000000D+00  E= 5.619365D+00

 Vector  366  Occ=0.000000D+00  E= 5.642992D+00

 Vector  367  Occ=0.000000D+00  E= 5.650339D+00

 Vector  368  Occ=0.000000D+00  E= 5.732224D+00

 Vector  369  Occ=0.000000D+00  E= 5.753694D+00

 Vector  370  Occ=0.000000D+00  E= 5.816087D+00

 Vector  371  Occ=0.000000D+00  E= 5.848504D+00

 Vector  372  Occ=0.000000D+00  E= 5.857006D+00

 Vector  373  Occ=0.000000D+00  E= 5.894830D+00

 Vector  374  Occ=0.000000D+00  E= 5.940464D+00

 Vector  375  Occ=0.000000D+00  E= 6.012664D+00

 Vector  376  Occ=0.000000D+00  E= 6.031344D+00

 Vector  377  Occ=0.000000D+00  E= 6.063637D+00

 Vector  378  Occ=0.000000D+00  E= 6.094745D+00

 Vector  379  Occ=0.000000D+00  E= 6.116308D+00

 Vector  380  Occ=0.000000D+00  E= 6.164590D+00

 Vector  381  Occ=0.000000D+00  E= 6.198349D+00

 Vector  382  Occ=0.000000D+00  E= 6.243043D+00

 Vector  383  Occ=0.000000D+00  E= 6.282716D+00

 Vector  384  Occ=0.000000D+00  E= 6.292937D+00

 Vector  385  Occ=0.000000D+00  E= 6.332645D+00

 Vector  386  Occ=0.000000D+00  E= 6.365628D+00

 Vector  387  Occ=0.000000D+00  E= 6.427626D+00

 Vector  388  Occ=0.000000D+00  E= 6.521054D+00

 Vector  389  Occ=0.000000D+00  E= 6.551431D+00

 Vector  390  Occ=0.000000D+00  E= 6.627331D+00

 Vector  391  Occ=0.000000D+00  E= 6.805790D+00

 Vector  392  Occ=0.000000D+00  E= 6.887449D+00

 Vector  393  Occ=0.000000D+00  E= 6.973246D+00

 Vector  394  Occ=0.000000D+00  E= 7.054824D+00

 Vector  395  Occ=0.000000D+00  E= 7.111738D+00

 Vector  396  Occ=0.000000D+00  E= 7.161372D+00

 Vector  397  Occ=0.000000D+00  E= 7.196423D+00

 Vector  398  Occ=0.000000D+00  E= 7.234352D+00

 Vector  399  Occ=0.000000D+00  E= 7.379927D+00

 Vector  400  Occ=0.000000D+00  E= 7.564913D+00

 Vector  401  Occ=0.000000D+00  E= 7.632621D+00

 Vector  402  Occ=0.000000D+00  E= 7.756964D+00

 Vector  403  Occ=0.000000D+00  E= 9.873317D+00

 Vector  404  Occ=0.000000D+00  E= 9.981243D+00

 Vector  405  Occ=0.000000D+00  E= 1.000169D+01

 Vector  406  Occ=0.000000D+00  E= 1.010959D+01

 Vector  407  Occ=0.000000D+00  E= 1.016735D+01

 Vector  408  Occ=0.000000D+00  E= 1.031826D+01

 Vector  409  Occ=0.000000D+00  E= 1.049789D+01

 Vector  410  Occ=0.000000D+00  E= 1.209439D+01

 Vector  411  Occ=0.000000D+00  E= 1.361998D+01

 Vector  412  Occ=0.000000D+00  E= 3.899552D+01

 Vector  413  Occ=0.000000D+00  E= 4.421143D+01

 Vector  414  Occ=0.000000D+00  E= 4.602400D+01

 Vector  415  Occ=0.000000D+00  E= 4.629737D+01

 Vector  416  Occ=0.000000D+00  E= 4.638117D+01

 Vector  417  Occ=0.000000D+00  E= 4.681289D+01

 Vector  418  Occ=0.000000D+00  E= 4.693568D+01

 Vector  419  Occ=0.000000D+00  E= 4.710904D+01

 Vector  420  Occ=0.000000D+00  E= 4.763932D+01

     Multipole analysis of the density
     ---------------------------------

     L   x y z        total         alpha         beta         nuclear
     -   - - -        -----         -----         ----         -------
     0   0 0 0     -0.000000    -32.000000    -32.000000     64.000000

     1   1 0 0      1.253010      0.626505      0.626505     -0.000000
     1   0 1 0      0.535608      0.267804      0.267804      0.000000
     1   0 0 1     -0.594515     -0.297257     -0.297257      0.000000

     2   2 0 0    -36.139003   -150.383966   -150.383966    264.628929
     2   1 1 0     -6.733666      2.684814      2.684814    -12.103294
     2   1 0 1      0.286518     -0.645957     -0.645957      1.578433
     2   0 2 0    -35.967129   -419.289831   -419.289831    802.612533
     2   0 1 1      2.940309     -1.014578     -1.014578      4.969464

 Total times  cpu:      115.1s     wall:      116.7s
