 Output coordinates in a.u. (scale by  1.000000000 to convert to a.u.)

  No.       Tag          Charge          X              Y              Z
 ---- ---------------- ---------- -------------- -------------- --------------
    1 C                    6.0000    -0.03614211    -0.42053916     0.01126238
    2 C                    6.0000     2.22682459     0.90517052     0.33137610
    3 C                    6.0000     2.22992887     3.53827291     0.35148544
    4 C                    6.0000    -0.02480912     4.85824384     0.02734558
    5 C                    6.0000    -2.28089903     3.54226215    -0.33191181
    6 C                    6.0000    -2.28936248     0.91463370    -0.32032235
    7 C                    6.0000    -0.14244891    -3.24634049     0.05524001
    8 O                    8.0000    -2.11732895    -4.34932595     0.68655829
    9 N                    7.0000     1.95702837    -4.49657036    -0.59018118
   10 H                    1.0000     3.99204501    -0.11393705     0.60632692
   11 H                    1.0000     3.99538978     4.54427784     0.62146220
   12 H                    1.0000    -0.03007003     6.90519702     0.03786346
   13 H                    1.0000    -4.04552126     4.55957129    -0.62368055
   14 H                    1.0000    -4.03594231    -0.13380540    -0.55478304
   15 H                    1.0000     1.87234178    -6.42341934    -0.69532107
   16 H                    1.0000     3.39263918    -3.61750506    -1.49991825

         Total DFT energy =     -400.652639882067

                       DFT Final Molecular Orbital Analysis
                       ------------------------------------

 Vector    1  Occ=2.000000D+00  E=-1.871285D+01

 Vector 1650  Occ=0.000000D+00  E= 3.767342D+01

 Vector 1651  Occ=0.000000D+00  E= 3.770389D+01

 Vector 1652  Occ=0.000000D+00  E= 3.774582D+01

 Vector 1653  Occ=0.000000D+00  E= 3.780075D+01

 Vector 1654  Occ=0.000000D+00  E= 3.781131D+01

 Vector 1655  Occ=0.000000D+00  E= 3.787446D+01

 Vector 1656  Occ=0.000000D+00  E= 3.792629D+01

 Vector 1657  Occ=0.000000D+00  E= 3.801985D+01

 Vector 1658  Occ=0.000000D+00  E= 3.810117D+01

 Vector 1659  Occ=0.000000D+00  E= 3.828892D+01

 Vector 1660  Occ=0.000000D+00  E= 3.837848D+01

 Vector 1661  Occ=0.000000D+00  E= 3.840125D+01

 Vector 1662  Occ=0.000000D+00  E= 3.844776D+01

 Vector 1663  Occ=0.000000D+00  E= 3.853008D+01

 Vector 1664  Occ=0.000000D+00  E= 4.007406D+01

 Vector 1665  Occ=0.000000D+00  E= 4.100826D+01

 Vector 1666  Occ=0.000000D+00  E= 4.103762D+01

 Vector 1667  Occ=0.000000D+00  E= 4.110752D+01

 Vector 1668  Occ=0.000000D+00  E= 4.142877D+01

 Vector 1669  Occ=0.000000D+00  E= 4.165252D+01

 Vector 1670  Occ=0.000000D+00  E= 4.201096D+01

 Vector 1671  Occ=0.000000D+00  E= 4.241247D+01

 Vector 1672  Occ=0.000000D+00  E= 4.785046D+01

 Vector 1673  Occ=0.000000D+00  E= 4.925595D+01

 Vector 1674  Occ=0.000000D+00  E= 4.973520D+01

 Vector 1675  Occ=0.000000D+00  E= 5.339157D+01

 Vector 1676  Occ=0.000000D+00  E= 5.357081D+01

 Vector 1677  Occ=0.000000D+00  E= 5.366064D+01

 Vector 1678  Occ=0.000000D+00  E= 5.378652D+01

 Vector 1679  Occ=0.000000D+00  E= 5.395667D+01

 Vector 1680  Occ=0.000000D+00  E= 5.403233D+01

 Vector 1681  Occ=0.000000D+00  E= 5.416668D+01

 Vector 1682  Occ=0.000000D+00  E= 5.433965D+01

 Vector 1683  Occ=0.000000D+00  E= 5.568481D+01

 Vector 1684  Occ=0.000000D+00  E= 5.693019D+01

 Vector 1685  Occ=0.000000D+00  E= 5.979713D+01

 Vector 1686  Occ=0.000000D+00  E= 8.138641D+01

 Vector 1687  Occ=0.000000D+00  E= 8.145920D+01

 Vector 1688  Occ=0.000000D+00  E= 8.148210D+01

 Vector 1689  Occ=0.000000D+00  E= 8.159489D+01

 Vector 1690  Occ=0.000000D+00  E= 8.172928D+01

 Vector 1691  Occ=0.000000D+00  E= 8.186025D+01

 Vector 1692  Occ=0.000000D+00  E= 8.199437D+01

 Vector 1693  Occ=0.000000D+00  E= 8.352390D+01

 Vector 1694  Occ=0.000000D+00  E= 8.355845D+01

 Vector 1695  Occ=0.000000D+00  E= 8.364121D+01

 Vector 1696  Occ=0.000000D+00  E= 8.386868D+01

 Vector 1697  Occ=0.000000D+00  E= 8.409387D+01

 Vector 1698  Occ=0.000000D+00  E= 8.984636D+01

 Vector 1699  Occ=0.000000D+00  E= 1.016469D+02

 Vector 1700  Occ=0.000000D+00  E= 1.016596D+02

 Vector 1701  Occ=0.000000D+00  E= 1.016740D+02

 Vector 1702  Occ=0.000000D+00  E= 1.017189D+02

 Vector 1703  Occ=0.000000D+00  E= 1.017654D+02

 Vector 1704  Occ=0.000000D+00  E= 1.017762D+02

 Vector 1705  Occ=0.000000D+00  E= 1.018044D+02

 Vector 1706  Occ=0.000000D+00  E= 1.019089D+02

 Vector 1707  Occ=0.000000D+00  E= 1.019217D+02

 Vector 1708  Occ=0.000000D+00  E= 1.019822D+02

 Vector 1709  Occ=0.000000D+00  E= 1.020336D+02

 Vector 1710  Occ=0.000000D+00  E= 1.020743D+02

 Vector 1711  Occ=0.000000D+00  E= 1.021162D+02

 Vector 1712  Occ=0.000000D+00  E= 1.021598D+02

 Vector 1713  Occ=0.000000D+00  E= 1.025661D+02

 Vector 1714  Occ=0.000000D+00  E= 1.026535D+02

 Vector 1715  Occ=0.000000D+00  E= 1.026563D+02

 Vector 1716  Occ=0.000000D+00  E= 1.026886D+02

 Vector 1717  Occ=0.000000D+00  E= 1.026930D+02

 Vector 1718  Occ=0.000000D+00  E= 1.027261D+02

 Vector 1719  Occ=0.000000D+00  E= 1.027401D+02

 Vector 1720  Occ=0.000000D+00  E= 1.082295D+02

 Vector 1721  Occ=0.000000D+00  E= 1.190590D+02

 Vector 1722  Occ=0.000000D+00  E= 1.191252D+02

 Vector 1723  Occ=0.000000D+00  E= 1.191318D+02

 Vector 1724  Occ=0.000000D+00  E= 1.191370D+02

 Vector 1725  Occ=0.000000D+00  E= 1.191399D+02

 Vector 1726  Occ=0.000000D+00  E= 1.191457D+02

 Vector 1727  Occ=0.000000D+00  E= 1.191476D+02

 Vector 1728  Occ=0.000000D+00  E= 1.863068D+02

 Vector 1729  Occ=0.000000D+00  E= 2.689308D+02

     Multipole analysis of the density
     ---------------------------------

     L   x y z        total         alpha         beta         nuclear
     -   - - -        -----         -----         ----         -------
     0   0 0 0     -0.000000    -32.000000    -32.000000     64.000000

     1   1 0 0      1.237893      0.618946      0.618946     -0.000000
     1   0 1 0      0.541737      0.270869      0.270869      0.000000
     1   0 0 1     -0.583580     -0.291790     -0.291790      0.000000

     2   2 0 0    -36.223017   -150.425973   -150.425973    264.628929
     2   1 1 0     -6.677362      2.712966      2.712966    -12.103294
     2   1 0 1      0.279946     -0.649244     -0.649244      1.578433
     2   0 2 0    -36.120818   -419.366675   -419.366675    802.612533
     2   0 1 1      2.915839     -1.026813     -1.026813      4.969464

 Total times  cpu:    81831.5s     wall:    82275.7s
